
     Program PWSCF v.7.2 starts on 11Oct2023 at  8:42:18 

     This program is part of the open-source Quantum ESPRESSO suite
     for quantum simulation of materials; please cite
         "P. Giannozzi et al., J. Phys.:Condens. Matter 21 395502 (2009);
         "P. Giannozzi et al., J. Phys.:Condens. Matter 29 465901 (2017);
         "P. Giannozzi et al., J. Chem. Phys. 152 154105 (2020);
          URL http://www.quantum-espresso.org", 
     in publications or presentations arising from this work. More details at
     http://www.quantum-espresso.org/quote

     Parallel version (MPI), running on     1 processors

     MPI processes distributed on     1 nodes
     24582 MiB available memory on the printing compute node when the environment starts
 
     Waiting for input...
     Reading input from standard input

     Current dimensions of program PWSCF are:
     Max number of different atomic species (ntypx) = 10
     Max number of k-points (npk) =  40000
     Max angular momentum in pseudopotentials (lmaxx) =  4

     Atomic positions and unit cell read from directory:
     /home/colonna_n/CODES/q-e-kcw/tempdir/GaAs.save/
 
     Message from routine setup:
     using ibrav=0 with symmetry is DISCOURAGED, use correct ibrav instead
 
     Subspace diagonalization in iterative solution of the eigenvalue problem:
     a serial algorithm will be used

 
     G-vector sticks info
     --------------------
     sticks:   dense  smooth     PW     G-vecs:    dense   smooth      PW
     Sum         955     955    283                19195    19195    3143
 
     Using Slab Decomposition
 


     bravais-lattice index     =            0
     lattice parameter (alat)  =       7.5524  a.u.
     unit-cell volume          =     304.6092 (a.u.)^3
     number of atoms/cell      =            2
     number of atomic types    =            2
     number of electrons       =        28.00
     number of Kohn-Sham states=           16
     kinetic-energy cutoff     =      60.0000  Ry
     charge density cutoff     =     240.0000  Ry
     Exchange-correlation= PBE
                           (   1   4   3   4   0   0   0)

     celldm(1)=   7.552418  celldm(2)=   0.000000  celldm(3)=   0.000000
     celldm(4)=   0.000000  celldm(5)=   0.000000  celldm(6)=   0.000000

     crystal axes: (cart. coord. in units of alat)
               a(1) = (   0.000000   0.707107   0.707107 )  
               a(2) = (   0.707107   0.000000   0.707107 )  
               a(3) = (   0.707107   0.707107   0.000000 )  

     reciprocal axes: (cart. coord. in units 2 pi/alat)
               b(1) = ( -0.707107  0.707107  0.707107 )  
               b(2) = (  0.707107 -0.707107  0.707107 )  
               b(3) = (  0.707107  0.707107 -0.707107 )  


     PseudoPot. # 1 for As read from file:
     /home/colonna_n/CODES/q-e-kcw/KCW/examples/example04/pseudo/As.upf
     MD5 check sum: bfe1a874457ce592347346129958e7cf
     Pseudo is Norm-conserving + core correction, Zval = 15.0
     Generated using ONCVPSP code by D. R. Hamann
     Using radial grid of 1358 points,  6 beta functions with: 
                l(1) =   0
                l(2) =   0
                l(3) =   1
                l(4) =   1
                l(5) =   2
                l(6) =   2

     PseudoPot. # 2 for Ga read from file:
     /home/colonna_n/CODES/q-e-kcw/KCW/examples/example04/pseudo/Ga.upf
     MD5 check sum: 2bb81bf6f0a8d9832cf3329850435ecf
     Pseudo is Norm-conserving + core correction, Zval = 13.0
     Generated using ONCVPSP code by D. R. Hamann
     Using radial grid of 1902 points,  6 beta functions with: 
                l(1) =   0
                l(2) =   0
                l(3) =   1
                l(4) =   1
                l(5) =   2
                l(6) =   2

     atomic species   valence    mass     pseudopotential
     As               15.00    74.92160     As( 1.00)
     Ga               13.00    69.72300     Ga( 1.00)

     24 Sym. Ops. (no inversion) found


                                    s                        frac. trans.

      isym =  1     identity                                     

 cryst.   s( 1) = (     1          0          0      )
                  (     0          1          0      )
                  (     0          0          1      )

 cart.    s( 1) = (  1.0000000  0.0000000  0.0000000 )
                  (  0.0000000  1.0000000  0.0000000 )
                  (  0.0000000  0.0000000  1.0000000 )


      isym =  2     180 deg rotation - cart. axis [0,0,1]        

 cryst.   s( 2) = (     0          1         -1      )
                  (     1          0         -1      )
                  (     0          0         -1      )

 cart.    s( 2) = ( -1.0000000  0.0000000  0.0000000 )
                  (  0.0000000 -1.0000000  0.0000000 )
                  (  0.0000000  0.0000000  1.0000000 )


      isym =  3     180 deg rotation - cart. axis [0,1,0]        

 cryst.   s( 3) = (     0         -1          1      )
                  (     0         -1          0      )
                  (     1         -1          0      )

 cart.    s( 3) = ( -1.0000000  0.0000000  0.0000000 )
                  (  0.0000000  1.0000000  0.0000000 )
                  (  0.0000000  0.0000000 -1.0000000 )


      isym =  4     180 deg rotation - cart. axis [1,0,0]        

 cryst.   s( 4) = (    -1          0          0      )
                  (    -1          0          1      )
                  (    -1          1          0      )

 cart.    s( 4) = (  1.0000000  0.0000000  0.0000000 )
                  (  0.0000000 -1.0000000  0.0000000 )
                  (  0.0000000  0.0000000 -1.0000000 )


      isym =  5     120 deg rotation - cart. axis [-1,-1,-1]     

 cryst.   s( 5) = (     0          0          1      )
                  (     1          0          0      )
                  (     0          1          0      )

 cart.    s( 5) = (  0.0000000  1.0000000  0.0000000 )
                  (  0.0000000  0.0000000  1.0000000 )
                  (  1.0000000  0.0000000  0.0000000 )


      isym =  6     120 deg rotation - cart. axis [-1,1,1]       

 cryst.   s( 6) = (     1         -1          0      )
                  (     0         -1          1      )
                  (     0         -1          0      )

 cart.    s( 6) = (  0.0000000 -1.0000000  0.0000000 )
                  (  0.0000000  0.0000000  1.0000000 )
                  ( -1.0000000  0.0000000  0.0000000 )


      isym =  7     120 deg rotation - cart. axis [1,1,-1]       

 cryst.   s( 7) = (    -1          1          0      )
                  (    -1          0          0      )
                  (    -1          0          1      )

 cart.    s( 7) = (  0.0000000  1.0000000  0.0000000 )
                  (  0.0000000  0.0000000 -1.0000000 )
                  ( -1.0000000  0.0000000  0.0000000 )


      isym =  8     120 deg rotation - cart. axis [1,-1,1]       

 cryst.   s( 8) = (     0          0         -1      )
                  (     0          1         -1      )
                  (     1          0         -1      )

 cart.    s( 8) = (  0.0000000 -1.0000000  0.0000000 )
                  (  0.0000000  0.0000000 -1.0000000 )
                  (  1.0000000  0.0000000  0.0000000 )


      isym =  9     120 deg rotation - cart. axis [1,1,1]        

 cryst.   s( 9) = (     0          1          0      )
                  (     0          0          1      )
                  (     1          0          0      )

 cart.    s( 9) = (  0.0000000  0.0000000  1.0000000 )
                  (  1.0000000  0.0000000  0.0000000 )
                  (  0.0000000  1.0000000  0.0000000 )


      isym = 10     120 deg rotation - cart. axis [-1,1,-1]      

 cryst.   s(10) = (    -1          0          1      )
                  (    -1          1          0      )
                  (    -1          0          0      )

 cart.    s(10) = (  0.0000000  0.0000000  1.0000000 )
                  ( -1.0000000  0.0000000  0.0000000 )
                  (  0.0000000 -1.0000000  0.0000000 )


      isym = 11     120 deg rotation - cart. axis [1,-1,-1]      

 cryst.   s(11) = (     1          0         -1      )
                  (     0          0         -1      )
                  (     0          1         -1      )

 cart.    s(11) = (  0.0000000  0.0000000 -1.0000000 )
                  ( -1.0000000  0.0000000  0.0000000 )
                  (  0.0000000  1.0000000  0.0000000 )


      isym = 12     120 deg rotation - cart. axis [-1,-1,1]      

 cryst.   s(12) = (     0         -1          0      )
                  (     1         -1          0      )
                  (     0         -1          1      )

 cart.    s(12) = (  0.0000000  0.0000000 -1.0000000 )
                  (  1.0000000  0.0000000  0.0000000 )
                  (  0.0000000 -1.0000000  0.0000000 )


      isym = 13     inv. 180 deg rotation - cart. axis [1,1,0]   

 cryst.   s(13) = (     1          0         -1      )
                  (     0          1         -1      )
                  (     0          0         -1      )

 cart.    s(13) = (  0.0000000 -1.0000000  0.0000000 )
                  ( -1.0000000  0.0000000  0.0000000 )
                  (  0.0000000  0.0000000  1.0000000 )


      isym = 14     inv. 180 deg rotation - cart. axis [1,-1,0]  

 cryst.   s(14) = (     0          1          0      )
                  (     1          0          0      )
                  (     0          0          1      )

 cart.    s(14) = (  0.0000000  1.0000000  0.0000000 )
                  (  1.0000000  0.0000000  0.0000000 )
                  (  0.0000000  0.0000000  1.0000000 )


      isym = 15     inv.  90 deg rotation - cart. axis [0,0,-1]  

 cryst.   s(15) = (     0         -1          0      )
                  (     0         -1          1      )
                  (     1         -1          0      )

 cart.    s(15) = (  0.0000000 -1.0000000  0.0000000 )
                  (  1.0000000  0.0000000  0.0000000 )
                  (  0.0000000  0.0000000 -1.0000000 )


      isym = 16     inv.  90 deg rotation - cart. axis [0,0,1]   

 cryst.   s(16) = (    -1          0          1      )
                  (    -1          0          0      )
                  (    -1          1          0      )

 cart.    s(16) = (  0.0000000  1.0000000  0.0000000 )
                  ( -1.0000000  0.0000000  0.0000000 )
                  (  0.0000000  0.0000000 -1.0000000 )


      isym = 17     inv. 180 deg rotation - cart. axis [1,0,1]   

 cryst.   s(17) = (     1         -1          0      )
                  (     0         -1          0      )
                  (     0         -1          1      )

 cart.    s(17) = (  0.0000000  0.0000000 -1.0000000 )
                  (  0.0000000  1.0000000  0.0000000 )
                  ( -1.0000000  0.0000000  0.0000000 )


      isym = 18     inv. 180 deg rotation - cart. axis [-1,0,1]  

 cryst.   s(18) = (     0          0          1      )
                  (     0          1          0      )
                  (     1          0          0      )

 cart.    s(18) = (  0.0000000  0.0000000  1.0000000 )
                  (  0.0000000  1.0000000  0.0000000 )
                  (  1.0000000  0.0000000  0.0000000 )


      isym = 19     inv.  90 deg rotation - cart. axis [0,1,0]   

 cryst.   s(19) = (     0          0         -1      )
                  (     1          0         -1      )
                  (     0          1         -1      )

 cart.    s(19) = (  0.0000000  0.0000000 -1.0000000 )
                  (  0.0000000 -1.0000000  0.0000000 )
                  (  1.0000000  0.0000000  0.0000000 )


      isym = 20     inv.  90 deg rotation - cart. axis [0,-1,0]  

 cryst.   s(20) = (    -1          1          0      )
                  (    -1          0          1      )
                  (    -1          0          0      )

 cart.    s(20) = (  0.0000000  0.0000000  1.0000000 )
                  (  0.0000000 -1.0000000  0.0000000 )
                  ( -1.0000000  0.0000000  0.0000000 )


      isym = 21     inv. 180 deg rotation - cart. axis [0,1,1]   

 cryst.   s(21) = (    -1          0          0      )
                  (    -1          1          0      )
                  (    -1          0          1      )

 cart.    s(21) = (  1.0000000  0.0000000  0.0000000 )
                  (  0.0000000  0.0000000 -1.0000000 )
                  (  0.0000000 -1.0000000  0.0000000 )


      isym = 22     inv. 180 deg rotation - cart. axis [0,1,-1]  

 cryst.   s(22) = (     1          0          0      )
                  (     0          0          1      )
                  (     0          1          0      )

 cart.    s(22) = (  1.0000000  0.0000000  0.0000000 )
                  (  0.0000000  0.0000000  1.0000000 )
                  (  0.0000000  1.0000000  0.0000000 )


      isym = 23     inv.  90 deg rotation - cart. axis [-1,0,0]  

 cryst.   s(23) = (     0          1         -1      )
                  (     0          0         -1      )
                  (     1          0         -1      )

 cart.    s(23) = ( -1.0000000  0.0000000  0.0000000 )
                  (  0.0000000  0.0000000 -1.0000000 )
                  (  0.0000000  1.0000000  0.0000000 )


      isym = 24     inv.  90 deg rotation - cart. axis [1,0,0]   

 cryst.   s(24) = (     0         -1          1      )
                  (     1         -1          0      )
                  (     0         -1          0      )

 cart.    s(24) = ( -1.0000000  0.0000000  0.0000000 )
                  (  0.0000000  0.0000000  1.0000000 )
                  (  0.0000000 -1.0000000  0.0000000 )


   Cartesian axes

     site n.     atom                  positions (alat units)
         1        As     tau(   1) = (   0.3535534   1.0606602   1.0606602  )
         2        Ga     tau(   2) = (   0.0000000   0.0000000   0.0000000  )

   Crystallographic axes

     site n.     atom                  positions (cryst. coord.)
         1        As     tau(   1) = (  1.2500000  0.2500000  0.2500000  )
         2        Ga     tau(   2) = (  0.0000000  0.0000000  0.0000000  )

     number of k points=    27
                       cart. coord. in units 2pi/alat
        k(    1) = (   0.0000000   0.0000000   0.0000000), wk =   0.0740741
        k(    2) = (   0.2357023   0.2357023  -0.2357023), wk =   0.0740741
        k(    3) = (   0.4714045   0.4714045  -0.4714045), wk =   0.0740741
        k(    4) = (   0.2357023  -0.2357023   0.2357023), wk =   0.0740741
        k(    5) = (   0.4714045   0.0000000   0.0000000), wk =   0.0740741
        k(    6) = (   0.7071068   0.2357023  -0.2357023), wk =   0.0740741
        k(    7) = (   0.4714045  -0.4714045   0.4714045), wk =   0.0740741
        k(    8) = (   0.7071068  -0.2357023   0.2357023), wk =   0.0740741
        k(    9) = (   0.9428090   0.0000000   0.0000000), wk =   0.0740741
        k(   10) = (  -0.2357023   0.2357023   0.2357023), wk =   0.0740741
        k(   11) = (   0.0000000   0.4714045   0.0000000), wk =   0.0740741
        k(   12) = (   0.2357023   0.7071068  -0.2357023), wk =   0.0740741
        k(   13) = (   0.0000000   0.0000000   0.4714045), wk =   0.0740741
        k(   14) = (   0.2357023   0.2357023   0.2357023), wk =   0.0740741
        k(   15) = (   0.4714045   0.4714045  -0.0000000), wk =   0.0740741
        k(   16) = (   0.2357023  -0.2357023   0.7071068), wk =   0.0740741
        k(   17) = (   0.4714045  -0.0000000   0.4714045), wk =   0.0740741
        k(   18) = (   0.7071068   0.2357023   0.2357023), wk =   0.0740741
        k(   19) = (  -0.4714045   0.4714045   0.4714045), wk =   0.0740741
        k(   20) = (  -0.2357023   0.7071068   0.2357023), wk =   0.0740741
        k(   21) = (   0.0000000   0.9428090   0.0000000), wk =   0.0740741
        k(   22) = (  -0.2357023   0.2357023   0.7071068), wk =   0.0740741
        k(   23) = (  -0.0000000   0.4714045   0.4714045), wk =   0.0740741
        k(   24) = (   0.2357023   0.7071068   0.2357023), wk =   0.0740741
        k(   25) = (   0.0000000   0.0000000   0.9428090), wk =   0.0740741
        k(   26) = (   0.2357023   0.2357023   0.7071068), wk =   0.0740741
        k(   27) = (   0.4714045   0.4714045   0.4714045), wk =   0.0740741

                       cryst. coord.
        k(    1) = (   0.0000000   0.0000000   0.0000000), wk =   0.0740741
        k(    2) = (   0.0000000   0.0000000   0.3333333), wk =   0.0740741
        k(    3) = (   0.0000000   0.0000000   0.6666667), wk =   0.0740741
        k(    4) = (   0.0000000   0.3333333   0.0000000), wk =   0.0740741
        k(    5) = (   0.0000000   0.3333333   0.3333333), wk =   0.0740741
        k(    6) = (   0.0000000   0.3333333   0.6666667), wk =   0.0740741
        k(    7) = (   0.0000000   0.6666667   0.0000000), wk =   0.0740741
        k(    8) = (   0.0000000   0.6666667   0.3333333), wk =   0.0740741
        k(    9) = (   0.0000000   0.6666667   0.6666667), wk =   0.0740741
        k(   10) = (   0.3333333   0.0000000   0.0000000), wk =   0.0740741
        k(   11) = (   0.3333333   0.0000000   0.3333333), wk =   0.0740741
        k(   12) = (   0.3333333   0.0000000   0.6666667), wk =   0.0740741
        k(   13) = (   0.3333333   0.3333333   0.0000000), wk =   0.0740741
        k(   14) = (   0.3333333   0.3333333   0.3333333), wk =   0.0740741
        k(   15) = (   0.3333333   0.3333333   0.6666667), wk =   0.0740741
        k(   16) = (   0.3333333   0.6666667   0.0000000), wk =   0.0740741
        k(   17) = (   0.3333333   0.6666667   0.3333333), wk =   0.0740741
        k(   18) = (   0.3333333   0.6666667   0.6666667), wk =   0.0740741
        k(   19) = (   0.6666667   0.0000000   0.0000000), wk =   0.0740741
        k(   20) = (   0.6666667   0.0000000   0.3333333), wk =   0.0740741
        k(   21) = (   0.6666667   0.0000000   0.6666667), wk =   0.0740741
        k(   22) = (   0.6666667   0.3333333   0.0000000), wk =   0.0740741
        k(   23) = (   0.6666667   0.3333333   0.3333333), wk =   0.0740741
        k(   24) = (   0.6666667   0.3333333   0.6666667), wk =   0.0740741
        k(   25) = (   0.6666667   0.6666667   0.0000000), wk =   0.0740741
        k(   26) = (   0.6666667   0.6666667   0.3333333), wk =   0.0740741
        k(   27) = (   0.6666667   0.6666667   0.6666667), wk =   0.0740741

     Dense  grid:    19195 G-vectors     FFT dimensions: (  40,  40,  40)

     Dynamical RAM for                 wfc:       0.58 MB

     Dynamical RAM for     wfc (w. buffer):       0.58 MB

     Dynamical RAM for           str. fact:       0.59 MB

     Dynamical RAM for           local pot:       0.00 MB

     Dynamical RAM for          nlocal pot:       1.31 MB

     Dynamical RAM for                qrad:       2.49 MB

     Dynamical RAM for          rho,v,vnew:       2.34 MB

     Dynamical RAM for           G-vectors:       1.24 MB

     Dynamical RAM for          h,s,v(r/c):       0.05 MB

     Dynamical RAM for          <psi|beta>:       0.01 MB

     Dynamical RAM for                 psi:       1.17 MB

     Dynamical RAM for                hpsi:       1.17 MB

     Dynamical RAM for      wfcinit/wfcrot:       1.32 MB

     Estimated static dynamical RAM per process >      11.88 MB

     Estimated max dynamical RAM per process >      14.27 MB

     The potential is recalculated from file :
     /home/colonna_n/CODES/q-e-kcw/tempdir/GaAs.save/charge-density

     Starting wfcs are   18 randomized atomic wfcs

     Band Structure Calculation
     Davidson diagonalization with overlap

     Computing kpt #:     1  of    27
     total cpu time spent up to now is        0.4 secs

     Computing kpt #:     2  of    27
     total cpu time spent up to now is        0.6 secs

     Computing kpt #:     3  of    27
     total cpu time spent up to now is        0.9 secs

     Computing kpt #:     4  of    27
     total cpu time spent up to now is        1.1 secs

     Computing kpt #:     5  of    27
     total cpu time spent up to now is        1.3 secs

     Computing kpt #:     6  of    27
     total cpu time spent up to now is        1.6 secs

     Computing kpt #:     7  of    27
     total cpu time spent up to now is        1.8 secs

     Computing kpt #:     8  of    27
     total cpu time spent up to now is        2.0 secs

     Computing kpt #:     9  of    27
     total cpu time spent up to now is        2.3 secs

     Computing kpt #:    10  of    27
     total cpu time spent up to now is        2.5 secs

     Computing kpt #:    11  of    27
     total cpu time spent up to now is        2.7 secs

     Computing kpt #:    12  of    27
     total cpu time spent up to now is        3.0 secs

     Computing kpt #:    13  of    27
     total cpu time spent up to now is        3.2 secs

     Computing kpt #:    14  of    27
     total cpu time spent up to now is        3.4 secs

     Computing kpt #:    15  of    27
     total cpu time spent up to now is        3.7 secs

     Computing kpt #:    16  of    27
     total cpu time spent up to now is        3.9 secs

     Computing kpt #:    17  of    27
     total cpu time spent up to now is        4.2 secs

     Computing kpt #:    18  of    27
     total cpu time spent up to now is        4.4 secs

     Computing kpt #:    19  of    27
     total cpu time spent up to now is        4.6 secs

     Computing kpt #:    20  of    27
     total cpu time spent up to now is        4.9 secs

     Computing kpt #:    21  of    27
     total cpu time spent up to now is        5.1 secs

     Computing kpt #:    22  of    27
     total cpu time spent up to now is        5.3 secs

     Computing kpt #:    23  of    27
     total cpu time spent up to now is        5.6 secs

     Computing kpt #:    24  of    27
     total cpu time spent up to now is        5.8 secs

     Computing kpt #:    25  of    27
     total cpu time spent up to now is        6.0 secs

     Computing kpt #:    26  of    27
     total cpu time spent up to now is        6.3 secs

     Computing kpt #:    27  of    27
     total cpu time spent up to now is        6.5 secs

     ethr =  1.43E-12,  avg # of iterations = 32.7

     total cpu time spent up to now is        6.5 secs

     End of band structure calculation

          k = 0.0000 0.0000 0.0000 (  2421 PWs)   bands (ev):

   -26.5489 -26.5489 -26.5489 -26.5273 -26.5273  -6.0701  -6.0701  -6.0701
    -5.9906  -5.9906  -3.8793   8.8616   8.8616   8.8616   9.3575  12.5948

     occupation numbers 
     1.0000   1.0000   1.0000   1.0000   1.0000   1.0000   1.0000   1.0000
     1.0000   1.0000   1.0000   1.0000   1.0000   1.0000   0.0000   0.0000

          k = 0.2357 0.2357-0.2357 (  2406 PWs)   bands (ev):

   -26.5409 -26.5377 -26.5377 -26.5263 -26.5263  -6.1262  -6.0506  -6.0506
    -5.9891  -5.9891  -2.7331   3.4681   7.9312   7.9312  10.0680  13.5663

     occupation numbers 
     1.0000   1.0000   1.0000   1.0000   1.0000   1.0000   1.0000   1.0000
     1.0000   1.0000   1.0000   1.0000   1.0000   1.0000   0.0000   0.0000

          k = 0.4714 0.4714-0.4714 (  2406 PWs)   bands (ev):

   -26.5409 -26.5377 -26.5377 -26.5263 -26.5263  -6.1262  -6.0506  -6.0506
    -5.9891  -5.9891  -2.7331   3.4681   7.9312   7.9312  10.0680  13.5663

     occupation numbers 
     1.0000   1.0000   1.0000   1.0000   1.0000   1.0000   1.0000   1.0000
     1.0000   1.0000   1.0000   1.0000   1.0000   1.0000   0.0000   0.0000

          k = 0.2357-0.2357 0.2357 (  2406 PWs)   bands (ev):

   -26.5409 -26.5377 -26.5377 -26.5263 -26.5263  -6.1262  -6.0506  -6.0506
    -5.9891  -5.9891  -2.7331   3.4681   7.9312   7.9312  10.0680  13.5663

     occupation numbers 
     1.0000   1.0000   1.0000   1.0000   1.0000   1.0000   1.0000   1.0000
     1.0000   1.0000   1.0000   1.0000   1.0000   1.0000   0.0000   0.0000

          k = 0.4714 0.0000 0.0000 (  2397 PWs)   bands (ev):

   -26.5412 -26.5308 -26.5282 -26.5282 -26.5250  -6.1524  -6.0267  -6.0267
    -6.0105  -5.9811  -2.3215   3.4894   6.6281   6.6281  10.4366  11.5057

     occupation numbers 
     1.0000   1.0000   1.0000   1.0000   1.0000   1.0000   1.0000   1.0000
     1.0000   1.0000   1.0000   1.0000   1.0000   1.0000   0.0000   0.0000

          k = 0.7071 0.2357-0.2357 (  2381 PWs)   bands (ev):

   -26.5277 -26.5208 -26.5198 -26.5145 -26.5113  -6.1514  -6.0314  -6.0236
    -5.9928  -5.9834  -1.5652   2.3862   4.8842   6.8991  11.1014  14.7440

     occupation numbers 
     1.0000   1.0000   1.0000   1.0000   1.0000   1.0000   1.0000   1.0000
     1.0000   1.0000   1.0000   1.0000   1.0000   1.0000   0.0000   0.0000

          k = 0.4714-0.4714 0.4714 (  2406 PWs)   bands (ev):

   -26.5409 -26.5377 -26.5377 -26.5263 -26.5263  -6.1262  -6.0506  -6.0506
    -5.9891  -5.9891  -2.7331   3.4681   7.9312   7.9312  10.0680  13.5663

     occupation numbers 
     1.0000   1.0000   1.0000   1.0000   1.0000   1.0000   1.0000   1.0000
     1.0000   1.0000   1.0000   1.0000   1.0000   1.0000   0.0000   0.0000

          k = 0.7071-0.2357 0.2357 (  2381 PWs)   bands (ev):

   -26.5277 -26.5208 -26.5198 -26.5145 -26.5113  -6.1514  -6.0314  -6.0236
    -5.9928  -5.9834  -1.5652   2.3862   4.8842   6.8991  11.1014  14.7440

     occupation numbers 
     1.0000   1.0000   1.0000   1.0000   1.0000   1.0000   1.0000   1.0000
     1.0000   1.0000   1.0000   1.0000   1.0000   1.0000   0.0000   0.0000

          k = 0.9428 0.0000 0.0000 (  2397 PWs)   bands (ev):

   -26.5412 -26.5308 -26.5282 -26.5282 -26.5250  -6.1524  -6.0267  -6.0267
    -6.0105  -5.9811  -2.3215   3.4894   6.6281   6.6281  10.4366  11.5057

     occupation numbers 
     1.0000   1.0000   1.0000   1.0000   1.0000   1.0000   1.0000   1.0000
     1.0000   1.0000   1.0000   1.0000   1.0000   1.0000   0.0000   0.0000

          k =-0.2357 0.2357 0.2357 (  2406 PWs)   bands (ev):

   -26.5409 -26.5377 -26.5377 -26.5263 -26.5263  -6.1262  -6.0506  -6.0506
    -5.9891  -5.9891  -2.7331   3.4681   7.9312   7.9312  10.0680  13.5663

     occupation numbers 
     1.0000   1.0000   1.0000   1.0000   1.0000   1.0000   1.0000   1.0000
     1.0000   1.0000   1.0000   1.0000   1.0000   1.0000   0.0000   0.0000

          k = 0.0000 0.4714 0.0000 (  2397 PWs)   bands (ev):

   -26.5412 -26.5308 -26.5282 -26.5282 -26.5250  -6.1524  -6.0267  -6.0267
    -6.0105  -5.9811  -2.3215   3.4894   6.6281   6.6281  10.4366  11.5057

     occupation numbers 
     1.0000   1.0000   1.0000   1.0000   1.0000   1.0000   1.0000   1.0000
     1.0000   1.0000   1.0000   1.0000   1.0000   1.0000   0.0000   0.0000

          k = 0.2357 0.7071-0.2357 (  2381 PWs)   bands (ev):

   -26.5277 -26.5208 -26.5198 -26.5145 -26.5113  -6.1514  -6.0314  -6.0236
    -5.9928  -5.9834  -1.5652   2.3862   4.8842   6.8991  11.1014  14.7440

     occupation numbers 
     1.0000   1.0000   1.0000   1.0000   1.0000   1.0000   1.0000   1.0000
     1.0000   1.0000   1.0000   1.0000   1.0000   1.0000   0.0000   0.0000

          k = 0.0000 0.0000 0.4714 (  2397 PWs)   bands (ev):

   -26.5412 -26.5308 -26.5282 -26.5282 -26.5250  -6.1524  -6.0267  -6.0267
    -6.0105  -5.9811  -2.3215   3.4894   6.6281   6.6281  10.4366  11.5057

     occupation numbers 
     1.0000   1.0000   1.0000   1.0000   1.0000   1.0000   1.0000   1.0000
     1.0000   1.0000   1.0000   1.0000   1.0000   1.0000   0.0000   0.0000

          k = 0.2357 0.2357 0.2357 (  2406 PWs)   bands (ev):

   -26.5409 -26.5377 -26.5377 -26.5263 -26.5263  -6.1262  -6.0506  -6.0506
    -5.9891  -5.9891  -2.7331   3.4681   7.9312   7.9312  10.0680  13.5663

     occupation numbers 
     1.0000   1.0000   1.0000   1.0000   1.0000   1.0000   1.0000   1.0000
     1.0000   1.0000   1.0000   1.0000   1.0000   1.0000   0.0000   0.0000

          k = 0.4714 0.4714-0.0000 (  2381 PWs)   bands (ev):

   -26.5277 -26.5208 -26.5198 -26.5145 -26.5113  -6.1514  -6.0314  -6.0236
    -5.9928  -5.9834  -1.5652   2.3862   4.8842   6.8991  11.1014  14.7440

     occupation numbers 
     1.0000   1.0000   1.0000   1.0000   1.0000   1.0000   1.0000   1.0000
     1.0000   1.0000   1.0000   1.0000   1.0000   1.0000   0.0000   0.0000

          k = 0.2357-0.2357 0.7071 (  2381 PWs)   bands (ev):

   -26.5277 -26.5208 -26.5198 -26.5145 -26.5113  -6.1514  -6.0314  -6.0236
    -5.9928  -5.9834  -1.5652   2.3862   4.8842   6.8991  11.1014  14.7440

     occupation numbers 
     1.0000   1.0000   1.0000   1.0000   1.0000   1.0000   1.0000   1.0000
     1.0000   1.0000   1.0000   1.0000   1.0000   1.0000   0.0000   0.0000

          k = 0.4714-0.0000 0.4714 (  2381 PWs)   bands (ev):

   -26.5277 -26.5208 -26.5198 -26.5145 -26.5113  -6.1514  -6.0314  -6.0236
    -5.9928  -5.9834  -1.5652   2.3862   4.8842   6.8991  11.1014  14.7440

     occupation numbers 
     1.0000   1.0000   1.0000   1.0000   1.0000   1.0000   1.0000   1.0000
     1.0000   1.0000   1.0000   1.0000   1.0000   1.0000   0.0000   0.0000

          k = 0.7071 0.2357 0.2357 (  2381 PWs)   bands (ev):

   -26.5277 -26.5208 -26.5198 -26.5145 -26.5113  -6.1514  -6.0314  -6.0236
    -5.9928  -5.9834  -1.5652   2.3862   4.8842   6.8991  11.1014  14.7440

     occupation numbers 
     1.0000   1.0000   1.0000   1.0000   1.0000   1.0000   1.0000   1.0000
     1.0000   1.0000   1.0000   1.0000   1.0000   1.0000   0.0000   0.0000

          k =-0.4714 0.4714 0.4714 (  2406 PWs)   bands (ev):

   -26.5409 -26.5377 -26.5377 -26.5263 -26.5263  -6.1262  -6.0506  -6.0506
    -5.9891  -5.9891  -2.7331   3.4681   7.9312   7.9312  10.0680  13.5663

     occupation numbers 
     1.0000   1.0000   1.0000   1.0000   1.0000   1.0000   1.0000   1.0000
     1.0000   1.0000   1.0000   1.0000   1.0000   1.0000   0.0000   0.0000

          k =-0.2357 0.7071 0.2357 (  2381 PWs)   bands (ev):

   -26.5277 -26.5208 -26.5198 -26.5145 -26.5113  -6.1514  -6.0314  -6.0236
    -5.9928  -5.9834  -1.5652   2.3862   4.8842   6.8991  11.1014  14.7440

     occupation numbers 
     1.0000   1.0000   1.0000   1.0000   1.0000   1.0000   1.0000   1.0000
     1.0000   1.0000   1.0000   1.0000   1.0000   1.0000   0.0000   0.0000

          k = 0.0000 0.9428 0.0000 (  2397 PWs)   bands (ev):

   -26.5412 -26.5308 -26.5282 -26.5282 -26.5250  -6.1524  -6.0267  -6.0267
    -6.0105  -5.9811  -2.3215   3.4894   6.6281   6.6281  10.4366  11.5057

     occupation numbers 
     1.0000   1.0000   1.0000   1.0000   1.0000   1.0000   1.0000   1.0000
     1.0000   1.0000   1.0000   1.0000   1.0000   1.0000   0.0000   0.0000

          k =-0.2357 0.2357 0.7071 (  2381 PWs)   bands (ev):

   -26.5277 -26.5208 -26.5198 -26.5145 -26.5113  -6.1514  -6.0314  -6.0236
    -5.9928  -5.9834  -1.5652   2.3862   4.8842   6.8991  11.1014  14.7440

     occupation numbers 
     1.0000   1.0000   1.0000   1.0000   1.0000   1.0000   1.0000   1.0000
     1.0000   1.0000   1.0000   1.0000   1.0000   1.0000   0.0000   0.0000

          k =-0.0000 0.4714 0.4714 (  2381 PWs)   bands (ev):

   -26.5277 -26.5208 -26.5198 -26.5145 -26.5113  -6.1514  -6.0314  -6.0236
    -5.9928  -5.9834  -1.5652   2.3862   4.8842   6.8991  11.1014  14.7440

     occupation numbers 
     1.0000   1.0000   1.0000   1.0000   1.0000   1.0000   1.0000   1.0000
     1.0000   1.0000   1.0000   1.0000   1.0000   1.0000   0.0000   0.0000

          k = 0.2357 0.7071 0.2357 (  2381 PWs)   bands (ev):

   -26.5277 -26.5208 -26.5198 -26.5145 -26.5113  -6.1514  -6.0314  -6.0236
    -5.9928  -5.9834  -1.5652   2.3862   4.8842   6.8991  11.1014  14.7440

     occupation numbers 
     1.0000   1.0000   1.0000   1.0000   1.0000   1.0000   1.0000   1.0000
     1.0000   1.0000   1.0000   1.0000   1.0000   1.0000   0.0000   0.0000

          k = 0.0000 0.0000 0.9428 (  2397 PWs)   bands (ev):

   -26.5412 -26.5308 -26.5282 -26.5282 -26.5250  -6.1524  -6.0267  -6.0267
    -6.0105  -5.9811  -2.3215   3.4894   6.6281   6.6281  10.4366  11.5057

     occupation numbers 
     1.0000   1.0000   1.0000   1.0000   1.0000   1.0000   1.0000   1.0000
     1.0000   1.0000   1.0000   1.0000   1.0000   1.0000   0.0000   0.0000

          k = 0.2357 0.2357 0.7071 (  2381 PWs)   bands (ev):

   -26.5277 -26.5208 -26.5198 -26.5145 -26.5113  -6.1514  -6.0314  -6.0236
    -5.9928  -5.9834  -1.5652   2.3862   4.8842   6.8991  11.1014  14.7440

     occupation numbers 
     1.0000   1.0000   1.0000   1.0000   1.0000   1.0000   1.0000   1.0000
     1.0000   1.0000   1.0000   1.0000   1.0000   1.0000   0.0000   0.0000

          k = 0.4714 0.4714 0.4714 (  2406 PWs)   bands (ev):

   -26.5409 -26.5377 -26.5377 -26.5263 -26.5263  -6.1262  -6.0506  -6.0506
    -5.9891  -5.9891  -2.7331   3.4681   7.9312   7.9312  10.0680  13.5663

     occupation numbers 
     1.0000   1.0000   1.0000   1.0000   1.0000   1.0000   1.0000   1.0000
     1.0000   1.0000   1.0000   1.0000   1.0000   1.0000   0.0000   0.0000

     highest occupied, lowest unoccupied level (ev):     8.8616    9.3575

     Writing all to output data dir /home/colonna_n/CODES/q-e-kcw/tempdir/GaAs.save/
 
     init_run     :      0.12s CPU      0.13s WALL (       1 calls)
     electrons    :      6.30s CPU      6.34s WALL (       1 calls)

     Called by init_run:
     wfcinit      :      0.00s CPU      0.00s WALL (       1 calls)
     wfcinit:atom :      0.01s CPU      0.01s WALL (      27 calls)
     wfcinit:wfcr :      0.29s CPU      0.29s WALL (      27 calls)
     potinit      :      0.01s CPU      0.02s WALL (       1 calls)
     hinit0       :      0.10s CPU      0.10s WALL (       1 calls)

     Called by electrons:
     c_bands      :      6.30s CPU      6.33s WALL (       1 calls)
     v_of_rho     :      0.01s CPU      0.02s WALL (       1 calls)
     v_h          :      0.00s CPU      0.00s WALL (       1 calls)
     v_xc         :      0.01s CPU      0.01s WALL (       1 calls)

     Called by c_bands:
     init_us_2    :      0.01s CPU      0.01s WALL (      27 calls)
     init_us_2:cp :      0.01s CPU      0.01s WALL (      27 calls)
     cegterg      :      5.86s CPU      5.89s WALL (      56 calls)

     Called by sum_band:

     Called by *egterg:
     cdiaghg      :      0.20s CPU      0.20s WALL (     910 calls)
     cegterg:over :      0.23s CPU      0.23s WALL (     883 calls)
     cegterg:upda :      0.12s CPU      0.12s WALL (     883 calls)
     cegterg:last :      0.19s CPU      0.19s WALL (     536 calls)
     h_psi        :      5.32s CPU      5.34s WALL (     966 calls)
     g_psi        :      0.04s CPU      0.04s WALL (     883 calls)

     Called by h_psi:
     h_psi:calbec :      0.14s CPU      0.14s WALL (     966 calls)
     vloc_psi     :      5.01s CPU      5.04s WALL (     966 calls)
     add_vuspsi   :      0.14s CPU      0.14s WALL (     966 calls)

     General routines
     calbec       :      0.14s CPU      0.14s WALL (     966 calls)
     fft          :      0.00s CPU      0.00s WALL (      11 calls)
     fftw         :      4.13s CPU      4.15s WALL (   18592 calls)
     davcio       :      0.01s CPU      0.01s WALL (      54 calls)
 
     Parallel routines
 
     PWSCF        :      6.48s CPU      6.54s WALL

 
   This run was terminated on:   8:42:24  11Oct2023            

=------------------------------------------------------------------------------=
   JOB DONE.
=------------------------------------------------------------------------------=
