
     Program PWSCF v.7.3.1 starts on  7Oct2024 at 15:50:40 
        Git branch: develop
        Last git commit: 14be3366ece7f014e5ee010d1559762818bd222f-dirty
        Last git commit date: Tue Oct 1 08:55:08 2024 +0000
        Last git commit subject: Merge branch 'develop' into 'develop'

     This program is part of the open-source Quantum ESPRESSO suite
     for quantum simulation of materials; please cite
         "P. Giannozzi et al., J. Phys.:Condens. Matter 21 395502 (2009);
         "P. Giannozzi et al., J. Phys.:Condens. Matter 29 465901 (2017);
         "P. Giannozzi et al., J. Chem. Phys. 152 154105 (2020);
          URL http://www.quantum-espresso.org", 
     in publications or presentations arising from this work. More details at
     http://www.quantum-espresso.org/quote

     Parallel version (MPI), running on     4 processors

     MPI processes distributed on     1 nodes
     9367 MiB available memory on the printing compute node when the environment starts
 
     Waiting for input...
     Reading input from standard input

     Current dimensions of program PWSCF are:
     Max number of different atomic species (ntypx) = 10
     Max number of k-points (npk) =  40000
     Max angular momentum in pseudopotentials (lmaxx) =  4
 
     R & G space division:  proc/nbgrp/npool/nimage =       4
     Subspace diagonalization in iterative solution of the eigenvalue problem:
     a serial algorithm will be used

 
     Parallelization info
     --------------------
     sticks:   dense  smooth     PW     G-vecs:    dense   smooth      PW
     Min         808     808    199                34386    34386    4268
     Max         809     809    200                34387    34387    4271
     Sum        3233    3233    797               137545   137545   17077
 
     Using Slab Decomposition
 


     bravais-lattice index     =            1
     lattice parameter (alat)  =      15.0000  a.u.
     unit-cell volume          =    3375.0000 (a.u.)^3
     number of atoms/cell      =           12
     number of atomic types    =            2
     number of electrons       =        30.00 (up:  15.00, down:  15.00)
     number of Kohn-Sham states=           15
     kinetic-energy cutoff     =      45.0000  Ry
     charge density cutoff     =     180.0000  Ry
     scf convergence threshold =      5.0E-13
     mixing beta               =       0.7000
     number of iterations used =            8  plain     mixing
     Exchange-correlation= SLA  PW   NOGX NOGC
                           (   1   4   0   0   0   0   0)
     Assuming isolated system, Martyna-Tuckerman method


     celldm(1)=  15.000000  celldm(2)=   0.000000  celldm(3)=   0.000000
     celldm(4)=   0.000000  celldm(5)=   0.000000  celldm(6)=   0.000000

     crystal axes: (cart. coord. in units of alat)
               a(1) = (   1.000000   0.000000   0.000000 )  
               a(2) = (   0.000000   1.000000   0.000000 )  
               a(3) = (   0.000000   0.000000   1.000000 )  

     reciprocal axes: (cart. coord. in units 2 pi/alat)
               b(1) = (  1.000000  0.000000  0.000000 )  
               b(2) = (  0.000000  1.000000  0.000000 )  
               b(3) = (  0.000000  0.000000  1.000000 )  


     PseudoPot. # 1 for H  read from file:
     /home/colonna_n/CODES/q-e-kcw/pseudo/H.upf
     MD5 check sum: 785d664e2740b342582c379770e72c80
     Pseudo is Norm-conserving, Zval =  1.0
     Generated using ONCVPSP code by D. R. Hamann
     Using radial grid of 1180 points,  3 beta functions with: 
                l(1) =   0
                l(2) =   0
                l(3) =   1

     PseudoPot. # 2 for C  read from file:
     /home/colonna_n/CODES/q-e-kcw/pseudo/C.upf
     MD5 check sum: c9bd9c91d9c48f3c1b9c51e450525728
     Pseudo is Norm-conserving + core correction, Zval =  4.0
     Generated using ONCVPSP code by D. R. Hamann
     Using radial grid of 1234 points,  4 beta functions with: 
                l(1) =   0
                l(2) =   0
                l(3) =   1
                l(4) =   1

     atomic species   valence    mass     pseudopotential
     H                 1.00     1.00000     H ( 1.00)
     C                 4.00     1.00000     C ( 1.00)

     Starting magnetic structure 
     atomic species   magnetization
     H               0.000
     C               0.000

     No symmetry found


                                    s                        frac. trans.

      isym =  1     identity                                     

 cryst.   s( 1) = (     1          0          0      )
                  (     0          1          0      )
                  (     0          0          1      )

 cart.    s( 1) = (  1.0000000  0.0000000  0.0000000 )
                  (  0.0000000  1.0000000  0.0000000 )
                  (  0.0000000  0.0000000  1.0000000 )


     point group C_1 (1)    
     there are  1 classes
     the character table:

       E    
A      1.00

     the symmetry operations in each class and the name of the first element:

     E        1
          identity                                               

   Cartesian axes

     site n.     atom                  positions (alat units)
         1        H      tau(   1) = (   0.6575491   0.4831148   0.7760475  )
         2        C      tau(   2) = (   0.5899095   0.4922863   0.6562011  )
         3        C      tau(   3) = (   0.4147949   0.4994924   0.6547649  )
         4        H      tau(   4) = (   0.3446357   0.4959901   0.7734397  )
         5        C      tau(   5) = (   0.3288375   0.5111331   0.5024908  )
         6        H      tau(   6) = (   0.1910387   0.5167897   0.5013569  )
         7        C      tau(   7) = (   0.4179570   0.5155803   0.3516402  )
         8        H      tau(   8) = (   0.3503048   0.5247392   0.2318190  )
         9        C      tau(   9) = (   0.5930590   0.5083615   0.3530890  )
        10        H      tau(  10) = (   0.6631805   0.5118386   0.2343890  )
        11        C      tau(  11) = (   0.6790290   0.4967208   0.5053632  )
        12        H      tau(  12) = (   0.8168152   0.4910516   0.5065096  )

   Crystallographic axes

     site n.     atom                  positions (cryst. coord.)
         1        H      tau(   1) = (  0.6575491  0.4831148  0.7760475  )
         2        C      tau(   2) = (  0.5899095  0.4922863  0.6562011  )
         3        C      tau(   3) = (  0.4147949  0.4994924  0.6547649  )
         4        H      tau(   4) = (  0.3446357  0.4959901  0.7734397  )
         5        C      tau(   5) = (  0.3288375  0.5111331  0.5024908  )
         6        H      tau(   6) = (  0.1910387  0.5167897  0.5013569  )
         7        C      tau(   7) = (  0.4179570  0.5155803  0.3516402  )
         8        H      tau(   8) = (  0.3503048  0.5247392  0.2318190  )
         9        C      tau(   9) = (  0.5930590  0.5083615  0.3530890  )
        10        H      tau(  10) = (  0.6631805  0.5118386  0.2343890  )
        11        C      tau(  11) = (  0.6790290  0.4967208  0.5053632  )
        12        H      tau(  12) = (  0.8168152  0.4910516  0.5065096  )

     number of k points=     1
                       cart. coord. in units 2pi/alat
        k(    1) = (   0.0000000   0.0000000   0.0000000), wk =   1.0000000

                       cryst. coord.
        k(    1) = (   0.0000000   0.0000000   0.0000000), wk =   1.0000000

     Dense  grid:   137545 G-vectors     FFT dimensions: (  72,  72,  72)

     Dynamical RAM for                 wfc:       0.98 MB

     Dynamical RAM for     wfc (w. buffer):       2.95 MB

     Dynamical RAM for           str. fact:       1.05 MB

     Dynamical RAM for           local pot:       0.00 MB

     Dynamical RAM for          nlocal pot:       5.12 MB

     Dynamical RAM for                qrad:       0.62 MB

     Dynamical RAM for          rho,v,vnew:       7.42 MB

     Dynamical RAM for               rhoin:       2.47 MB

     Dynamical RAM for            rho*nmix:      16.79 MB

     Dynamical RAM for           G-vectors:       2.23 MB

     Dynamical RAM for          h,s,v(r/c):       0.04 MB

     Dynamical RAM for          <psi|beta>:       0.02 MB

     Dynamical RAM for                 psi:       1.97 MB

     Dynamical RAM for                hpsi:       1.97 MB

     Dynamical RAM for      wfcinit/wfcrot:       1.97 MB

     Estimated static dynamical RAM per process >      27.71 MB

     Estimated max dynamical RAM per process >      48.49 MB

     Estimated total dynamical RAM >     193.97 MB
     Generating pointlists ...
     new r_m :   0.0569 (alat units)  0.8533 (a.u.) for type    1
     new r_m :   0.0569 (alat units)  0.8533 (a.u.) for type    2

     Initial potential from superposition of free atoms

     starting charge      29.9997, renormalised to      30.0000

     negative rho (up, down):  4.533E-05 4.533E-05
     Starting wfcs are   30 randomized atomic wfcs

     total cpu time spent up to now is        1.1 secs

     per-process dynamical memory:    64.0 Mb

     Self-consistent Calculation

     iteration #  1     ecut=    45.00 Ry     beta= 0.70
     Davidson diagonalization with overlap

---- Real-time Memory Report at c_bands before calling an iterative solver
           123 MiB given to the printing process from OS
            66 MiB allocation reported by mallinfo(arena+hblkhd)
          9231 MiB available memory on the node where the printing process lives
------------------
     ethr =  1.00E-02,  avg # of iterations =  3.0

     negative rho (up, down):  2.535E-06 2.673E-06

     total cpu time spent up to now is        2.1 secs

     total energy              =     -78.67372342 Ry
     estimated scf accuracy    <       1.25354907 Ry

     total magnetization       =     0.00 Bohr mag/cell
     absolute magnetization    =     0.02 Bohr mag/cell

     iteration #  2     ecut=    45.00 Ry     beta= 0.70
     Davidson diagonalization with overlap

---- Real-time Memory Report at c_bands before calling an iterative solver
           145 MiB given to the printing process from OS
            87 MiB allocation reported by mallinfo(arena+hblkhd)
          9190 MiB available memory on the node where the printing process lives
------------------
     ethr =  4.18E-03,  avg # of iterations =  3.0

     negative rho (up, down):  6.219E-08 9.125E-08

     total cpu time spent up to now is        3.1 secs

     total energy              =     -78.94409841 Ry
     estimated scf accuracy    <       0.06967569 Ry

     total magnetization       =     0.00 Bohr mag/cell
     absolute magnetization    =     0.01 Bohr mag/cell

     iteration #  3     ecut=    45.00 Ry     beta= 0.70
     Davidson diagonalization with overlap

---- Real-time Memory Report at c_bands before calling an iterative solver
           148 MiB given to the printing process from OS
            89 MiB allocation reported by mallinfo(arena+hblkhd)
          9181 MiB available memory on the node where the printing process lives
------------------
     ethr =  2.32E-04,  avg # of iterations =  5.0

     negative rho (up, down):  1.353E-08 1.452E-08

     total cpu time spent up to now is        4.2 secs

     total energy              =     -78.95881358 Ry
     estimated scf accuracy    <       0.02255700 Ry

     total magnetization       =    -0.00 Bohr mag/cell
     absolute magnetization    =     0.01 Bohr mag/cell

     iteration #  4     ecut=    45.00 Ry     beta= 0.70
     Davidson diagonalization with overlap

---- Real-time Memory Report at c_bands before calling an iterative solver
           150 MiB given to the printing process from OS
            91 MiB allocation reported by mallinfo(arena+hblkhd)
          9173 MiB available memory on the node where the printing process lives
------------------
     ethr =  7.52E-05,  avg # of iterations =  3.0

     total cpu time spent up to now is        5.2 secs

     total energy              =     -78.96678447 Ry
     estimated scf accuracy    <       0.00805948 Ry

     total magnetization       =     0.00 Bohr mag/cell
     absolute magnetization    =     0.00 Bohr mag/cell

     iteration #  5     ecut=    45.00 Ry     beta= 0.70
     Davidson diagonalization with overlap

---- Real-time Memory Report at c_bands before calling an iterative solver
           152 MiB given to the printing process from OS
            93 MiB allocation reported by mallinfo(arena+hblkhd)
          9158 MiB available memory on the node where the printing process lives
------------------
     ethr =  2.69E-05,  avg # of iterations =  2.0

     total cpu time spent up to now is        6.1 secs

     total energy              =     -78.96825472 Ry
     estimated scf accuracy    <       0.00021563 Ry

     total magnetization       =    -0.00 Bohr mag/cell
     absolute magnetization    =     0.00 Bohr mag/cell

     iteration #  6     ecut=    45.00 Ry     beta= 0.70
     Davidson diagonalization with overlap

---- Real-time Memory Report at c_bands before calling an iterative solver
           156 MiB given to the printing process from OS
            95 MiB allocation reported by mallinfo(arena+hblkhd)
          9144 MiB available memory on the node where the printing process lives
------------------
     ethr =  7.19E-07,  avg # of iterations = 10.0

     total cpu time spent up to now is        8.0 secs

     total energy              =     -78.96930238 Ry
     estimated scf accuracy    <       0.00310081 Ry

     total magnetization       =    -0.00 Bohr mag/cell
     absolute magnetization    =     0.00 Bohr mag/cell

     iteration #  7     ecut=    45.00 Ry     beta= 0.70
     Davidson diagonalization with overlap

---- Real-time Memory Report at c_bands before calling an iterative solver
           158 MiB given to the printing process from OS
            97 MiB allocation reported by mallinfo(arena+hblkhd)
          9133 MiB available memory on the node where the printing process lives
------------------
     ethr =  7.19E-07,  avg # of iterations =  3.0

     total cpu time spent up to now is        9.1 secs

     total energy              =     -78.96847882 Ry
     estimated scf accuracy    <       0.00129178 Ry

     total magnetization       =    -0.00 Bohr mag/cell
     absolute magnetization    =     0.00 Bohr mag/cell

     iteration #  8     ecut=    45.00 Ry     beta= 0.70
     Davidson diagonalization with overlap

---- Real-time Memory Report at c_bands before calling an iterative solver
           160 MiB given to the printing process from OS
            99 MiB allocation reported by mallinfo(arena+hblkhd)
          9123 MiB available memory on the node where the printing process lives
------------------
     ethr =  7.19E-07,  avg # of iterations =  7.0

     total cpu time spent up to now is       10.5 secs

     total energy              =     -78.96909814 Ry
     estimated scf accuracy    <       0.00026445 Ry

     total magnetization       =     0.00 Bohr mag/cell
     absolute magnetization    =     0.00 Bohr mag/cell

     iteration #  9     ecut=    45.00 Ry     beta= 0.70
     Davidson diagonalization with overlap

---- Real-time Memory Report at c_bands before calling an iterative solver
           163 MiB given to the printing process from OS
           101 MiB allocation reported by mallinfo(arena+hblkhd)
          9112 MiB available memory on the node where the printing process lives
------------------
     ethr =  7.19E-07,  avg # of iterations =  1.0

     total cpu time spent up to now is       11.3 secs

     total energy              =     -78.96900370 Ry
     estimated scf accuracy    <       0.00013229 Ry

     total magnetization       =    -0.00 Bohr mag/cell
     absolute magnetization    =     0.00 Bohr mag/cell

     iteration # 10     ecut=    45.00 Ry     beta= 0.70
     Davidson diagonalization with overlap

---- Real-time Memory Report at c_bands before calling an iterative solver
           165 MiB given to the printing process from OS
           103 MiB allocation reported by mallinfo(arena+hblkhd)
          9115 MiB available memory on the node where the printing process lives
------------------
     ethr =  4.41E-07,  avg # of iterations =  5.0

     total cpu time spent up to now is       12.4 secs

     total energy              =     -78.96906474 Ry
     estimated scf accuracy    <       0.00002576 Ry

     total magnetization       =     0.00 Bohr mag/cell
     absolute magnetization    =     0.00 Bohr mag/cell

     iteration # 11     ecut=    45.00 Ry     beta= 0.70
     Davidson diagonalization with overlap

---- Real-time Memory Report at c_bands before calling an iterative solver
           165 MiB given to the printing process from OS
           103 MiB allocation reported by mallinfo(arena+hblkhd)
          9128 MiB available memory on the node where the printing process lives
------------------
     ethr =  8.59E-08,  avg # of iterations =  3.0

     total cpu time spent up to now is       13.3 secs

     total energy              =     -78.96906781 Ry
     estimated scf accuracy    <       0.00000234 Ry

     total magnetization       =     0.00 Bohr mag/cell
     absolute magnetization    =     0.00 Bohr mag/cell

     iteration # 12     ecut=    45.00 Ry     beta= 0.70
     Davidson diagonalization with overlap

---- Real-time Memory Report at c_bands before calling an iterative solver
           165 MiB given to the printing process from OS
           103 MiB allocation reported by mallinfo(arena+hblkhd)
          9128 MiB available memory on the node where the printing process lives
------------------
     ethr =  7.79E-09,  avg # of iterations =  9.0

     total cpu time spent up to now is       14.2 secs

     total energy              =     -78.96906194 Ry
     estimated scf accuracy    <       0.00002852 Ry

     total magnetization       =     0.00 Bohr mag/cell
     absolute magnetization    =     0.00 Bohr mag/cell

     iteration # 13     ecut=    45.00 Ry     beta= 0.70
     Davidson diagonalization with overlap

---- Real-time Memory Report at c_bands before calling an iterative solver
           165 MiB given to the printing process from OS
           103 MiB allocation reported by mallinfo(arena+hblkhd)
          9144 MiB available memory on the node where the printing process lives
------------------
     ethr =  7.79E-09,  avg # of iterations =  7.0

     total cpu time spent up to now is       15.0 secs

     total energy              =     -78.96906884 Ry
     estimated scf accuracy    <       0.00000036 Ry

     total magnetization       =     0.00 Bohr mag/cell
     absolute magnetization    =     0.00 Bohr mag/cell

     iteration # 14     ecut=    45.00 Ry     beta= 0.70
     Davidson diagonalization with overlap

---- Real-time Memory Report at c_bands before calling an iterative solver
           165 MiB given to the printing process from OS
           103 MiB allocation reported by mallinfo(arena+hblkhd)
          9143 MiB available memory on the node where the printing process lives
------------------
     ethr =  1.18E-09,  avg # of iterations =  3.0

     total cpu time spent up to now is       15.6 secs

     total energy              =     -78.96906902 Ry
     estimated scf accuracy    <       0.00000018 Ry

     total magnetization       =    -0.00 Bohr mag/cell
     absolute magnetization    =     0.00 Bohr mag/cell

     iteration # 15     ecut=    45.00 Ry     beta= 0.70
     Davidson diagonalization with overlap

---- Real-time Memory Report at c_bands before calling an iterative solver
           165 MiB given to the printing process from OS
           103 MiB allocation reported by mallinfo(arena+hblkhd)
          9143 MiB available memory on the node where the printing process lives
------------------
     ethr =  6.03E-10,  avg # of iterations =  2.0

     total cpu time spent up to now is       16.0 secs

     total energy              =     -78.96906899 Ry
     estimated scf accuracy    <       0.00000005 Ry

     total magnetization       =     0.00 Bohr mag/cell
     absolute magnetization    =     0.00 Bohr mag/cell

     iteration # 16     ecut=    45.00 Ry     beta= 0.70
     Davidson diagonalization with overlap

---- Real-time Memory Report at c_bands before calling an iterative solver
           165 MiB given to the printing process from OS
           103 MiB allocation reported by mallinfo(arena+hblkhd)
          9142 MiB available memory on the node where the printing process lives
------------------
     ethr =  1.77E-10,  avg # of iterations =  6.0

     total cpu time spent up to now is       16.7 secs

     total energy              =     -78.96906905 Ry
     estimated scf accuracy    <       0.00000008 Ry

     total magnetization       =    -0.00 Bohr mag/cell
     absolute magnetization    =     0.00 Bohr mag/cell

     iteration # 17     ecut=    45.00 Ry     beta= 0.70
     Davidson diagonalization with overlap

---- Real-time Memory Report at c_bands before calling an iterative solver
           165 MiB given to the printing process from OS
           103 MiB allocation reported by mallinfo(arena+hblkhd)
          9149 MiB available memory on the node where the printing process lives
------------------
     ethr =  1.77E-10,  avg # of iterations =  1.0

     total cpu time spent up to now is       17.2 secs

     total energy              =     -78.96906908 Ry
     estimated scf accuracy    <       0.00000004 Ry

     total magnetization       =     0.00 Bohr mag/cell
     absolute magnetization    =     0.00 Bohr mag/cell

     iteration # 18     ecut=    45.00 Ry     beta= 0.70
     Davidson diagonalization with overlap

---- Real-time Memory Report at c_bands before calling an iterative solver
           165 MiB given to the printing process from OS
           103 MiB allocation reported by mallinfo(arena+hblkhd)
          9148 MiB available memory on the node where the printing process lives
------------------
     ethr =  1.38E-10,  avg # of iterations =  2.0

     total cpu time spent up to now is       17.7 secs

     total energy              =     -78.96906901 Ry
     estimated scf accuracy    <       0.00000012 Ry

     total magnetization       =    -0.00 Bohr mag/cell
     absolute magnetization    =     0.00 Bohr mag/cell

     iteration # 19     ecut=    45.00 Ry     beta= 0.70
     Davidson diagonalization with overlap

---- Real-time Memory Report at c_bands before calling an iterative solver
           165 MiB given to the printing process from OS
           103 MiB allocation reported by mallinfo(arena+hblkhd)
          9147 MiB available memory on the node where the printing process lives
------------------
     ethr =  1.38E-10,  avg # of iterations =  3.0

     total cpu time spent up to now is       18.3 secs

     total energy              =     -78.96906904 Ry
     estimated scf accuracy    <          1.6E-09 Ry

     total magnetization       =    -0.00 Bohr mag/cell
     absolute magnetization    =     0.00 Bohr mag/cell

     iteration # 20     ecut=    45.00 Ry     beta= 0.70
     Davidson diagonalization with overlap

---- Real-time Memory Report at c_bands before calling an iterative solver
           165 MiB given to the printing process from OS
           103 MiB allocation reported by mallinfo(arena+hblkhd)
          9146 MiB available memory on the node where the printing process lives
------------------
     ethr =  5.37E-12,  avg # of iterations = 10.0

     total cpu time spent up to now is       19.3 secs

     total energy              =     -78.96906905 Ry
     estimated scf accuracy    <       0.00000006 Ry

     total magnetization       =    -0.00 Bohr mag/cell
     absolute magnetization    =     0.00 Bohr mag/cell

     iteration # 21     ecut=    45.00 Ry     beta= 0.70
     Davidson diagonalization with overlap

---- Real-time Memory Report at c_bands before calling an iterative solver
           165 MiB given to the printing process from OS
           103 MiB allocation reported by mallinfo(arena+hblkhd)
          9144 MiB available memory on the node where the printing process lives
------------------
     ethr =  5.37E-12,  avg # of iterations =  1.0

     total cpu time spent up to now is       19.8 secs

     total energy              =     -78.96906902 Ry
     estimated scf accuracy    <       0.00000005 Ry

     total magnetization       =     0.00 Bohr mag/cell
     absolute magnetization    =     0.00 Bohr mag/cell

     iteration # 22     ecut=    45.00 Ry     beta= 0.70
     Davidson diagonalization with overlap

---- Real-time Memory Report at c_bands before calling an iterative solver
           165 MiB given to the printing process from OS
           103 MiB allocation reported by mallinfo(arena+hblkhd)
          9140 MiB available memory on the node where the printing process lives
------------------
     ethr =  5.37E-12,  avg # of iterations = 10.0

     total cpu time spent up to now is       20.8 secs

     total energy              =     -78.96906904 Ry
     estimated scf accuracy    <          4.7E-09 Ry

     total magnetization       =    -0.00 Bohr mag/cell
     absolute magnetization    =     0.00 Bohr mag/cell

     iteration # 23     ecut=    45.00 Ry     beta= 0.70
     Davidson diagonalization with overlap

---- Real-time Memory Report at c_bands before calling an iterative solver
           165 MiB given to the printing process from OS
           103 MiB allocation reported by mallinfo(arena+hblkhd)
          9133 MiB available memory on the node where the printing process lives
------------------
     ethr =  5.37E-12,  avg # of iterations =  1.0

     total cpu time spent up to now is       21.2 secs

     total energy              =     -78.96906904 Ry
     estimated scf accuracy    <          5.1E-09 Ry

     total magnetization       =     0.00 Bohr mag/cell
     absolute magnetization    =     0.00 Bohr mag/cell

     iteration # 24     ecut=    45.00 Ry     beta= 0.70
     Davidson diagonalization with overlap

---- Real-time Memory Report at c_bands before calling an iterative solver
           165 MiB given to the printing process from OS
           103 MiB allocation reported by mallinfo(arena+hblkhd)
          9143 MiB available memory on the node where the printing process lives
------------------
     ethr =  5.37E-12,  avg # of iterations =  2.0

     total cpu time spent up to now is       21.7 secs

     total energy              =     -78.96906904 Ry
     estimated scf accuracy    <          1.7E-09 Ry

     total magnetization       =    -0.00 Bohr mag/cell
     absolute magnetization    =     0.00 Bohr mag/cell

     iteration # 25     ecut=    45.00 Ry     beta= 0.70
     Davidson diagonalization with overlap

---- Real-time Memory Report at c_bands before calling an iterative solver
           165 MiB given to the printing process from OS
           103 MiB allocation reported by mallinfo(arena+hblkhd)
          9142 MiB available memory on the node where the printing process lives
------------------
     ethr =  5.37E-12,  avg # of iterations =  2.0

     total cpu time spent up to now is       22.2 secs

     total energy              =     -78.96906904 Ry
     estimated scf accuracy    <          3.1E-10 Ry

     total magnetization       =    -0.00 Bohr mag/cell
     absolute magnetization    =     0.00 Bohr mag/cell

     iteration # 26     ecut=    45.00 Ry     beta= 0.70
     Davidson diagonalization with overlap

---- Real-time Memory Report at c_bands before calling an iterative solver
           165 MiB given to the printing process from OS
           103 MiB allocation reported by mallinfo(arena+hblkhd)
          9141 MiB available memory on the node where the printing process lives
------------------
     ethr =  1.04E-12,  avg # of iterations =  5.0

     total cpu time spent up to now is       22.9 secs

     total energy              =     -78.96906904 Ry
     estimated scf accuracy    <          1.9E-11 Ry

     total magnetization       =    -0.00 Bohr mag/cell
     absolute magnetization    =     0.00 Bohr mag/cell

     iteration # 27     ecut=    45.00 Ry     beta= 0.70
     Davidson diagonalization with overlap

---- Real-time Memory Report at c_bands before calling an iterative solver
           165 MiB given to the printing process from OS
           103 MiB allocation reported by mallinfo(arena+hblkhd)
          9140 MiB available memory on the node where the printing process lives
------------------
     ethr =  1.00E-13,  avg # of iterations =  3.0

     total cpu time spent up to now is       23.4 secs

     total energy              =     -78.96906904 Ry
     estimated scf accuracy    <          2.1E-12 Ry

     total magnetization       =     0.00 Bohr mag/cell
     absolute magnetization    =     0.00 Bohr mag/cell

     iteration # 28     ecut=    45.00 Ry     beta= 0.70
     Davidson diagonalization with overlap

---- Real-time Memory Report at c_bands before calling an iterative solver
           165 MiB given to the printing process from OS
           103 MiB allocation reported by mallinfo(arena+hblkhd)
          9138 MiB available memory on the node where the printing process lives
------------------
     ethr =  1.00E-13,  avg # of iterations =  4.0

     total cpu time spent up to now is       24.0 secs

     total energy              =     -78.96906904 Ry
     estimated scf accuracy    <          2.7E-11 Ry

     total magnetization       =     0.00 Bohr mag/cell
     absolute magnetization    =     0.00 Bohr mag/cell

     iteration # 29     ecut=    45.00 Ry     beta= 0.70
     Davidson diagonalization with overlap

---- Real-time Memory Report at c_bands before calling an iterative solver
           165 MiB given to the printing process from OS
           103 MiB allocation reported by mallinfo(arena+hblkhd)
          9137 MiB available memory on the node where the printing process lives
------------------
     ethr =  1.00E-13,  avg # of iterations =  1.0

     total cpu time spent up to now is       24.4 secs

     total energy              =     -78.96906904 Ry
     estimated scf accuracy    <          1.2E-11 Ry

     total magnetization       =    -0.00 Bohr mag/cell
     absolute magnetization    =     0.00 Bohr mag/cell

     iteration # 30     ecut=    45.00 Ry     beta= 0.70
     Davidson diagonalization with overlap

---- Real-time Memory Report at c_bands before calling an iterative solver
           165 MiB given to the printing process from OS
           103 MiB allocation reported by mallinfo(arena+hblkhd)
          9137 MiB available memory on the node where the printing process lives
------------------
     ethr =  1.00E-13,  avg # of iterations =  2.0

     total cpu time spent up to now is       24.9 secs

     total energy              =     -78.96906904 Ry
     estimated scf accuracy    <          1.3E-12 Ry

     total magnetization       =    -0.00 Bohr mag/cell
     absolute magnetization    =     0.00 Bohr mag/cell

     iteration # 31     ecut=    45.00 Ry     beta= 0.70
     Davidson diagonalization with overlap

---- Real-time Memory Report at c_bands before calling an iterative solver
           165 MiB given to the printing process from OS
           103 MiB allocation reported by mallinfo(arena+hblkhd)
          9136 MiB available memory on the node where the printing process lives
------------------
     ethr =  1.00E-13,  avg # of iterations =  1.0
 
     Magnetic moment per site  (integrated on atomic sphere of radius R)
     atom   1 (R=0.057)  charge=  0.4850  magn= -0.0000
     atom   2 (R=0.057)  charge=  0.8682  magn=  0.0000
     atom   3 (R=0.057)  charge=  0.8729  magn= -0.0000
     atom   4 (R=0.057)  charge=  0.4843  magn= -0.0000
     atom   5 (R=0.057)  charge=  0.8708  magn=  0.0000
     atom   6 (R=0.057)  charge=  0.4789  magn= -0.0000
     atom   7 (R=0.057)  charge=  0.8709  magn= -0.0000
     atom   8 (R=0.057)  charge=  0.4846  magn=  0.0000
     atom   9 (R=0.057)  charge=  0.8667  magn= -0.0000
     atom  10 (R=0.057)  charge=  0.4855  magn=  0.0000
     atom  11 (R=0.057)  charge=  0.8714  magn= -0.0000
     atom  12 (R=0.057)  charge=  0.4786  magn=  0.0000

     total cpu time spent up to now is       25.3 secs

     End of self-consistent calculation

 ------ SPIN UP ------------


          k = 0.0000 0.0000 0.0000 ( 17077 PWs)   bands (ev):

   -20.7114 -17.8329 -17.8244 -14.2137 -14.1805 -12.3122 -10.4722 -10.3139
    -9.5447  -9.4665  -8.7758  -7.5434  -7.5031  -5.9764  -5.9682

     occupation numbers 
     1.0000   1.0000   1.0000   1.0000   1.0000   1.0000   1.0000   1.0000
     1.0000   1.0000   1.0000   1.0000   1.0000   1.0000   1.0000

 ------ SPIN DOWN ----------


          k = 0.0000 0.0000 0.0000 ( 17077 PWs)   bands (ev):

   -20.7114 -17.8329 -17.8244 -14.2137 -14.1805 -12.3122 -10.4722 -10.3139
    -9.5447  -9.4665  -8.7758  -7.5434  -7.5031  -5.9764  -5.9682

     occupation numbers 
     1.0000   1.0000   1.0000   1.0000   1.0000   1.0000   1.0000   1.0000
     1.0000   1.0000   1.0000   1.0000   1.0000   1.0000   1.0000

     highest occupied level (ev):    -5.9682

!    total energy              =     -78.96906904 Ry
     estimated scf accuracy    <          2.4E-13 Ry

     The total energy is the sum of the following terms:
     one-electron contribution =    -520.20898202 Ry
     hartree contribution      =     264.03865854 Ry
     xc contribution           =     -29.50348634 Ry
     ewald contribution        =     206.70474078 Ry

     total magnetization       =     0.00 Bohr mag/cell
     absolute magnetization    =     0.00 Bohr mag/cell

     convergence has been achieved in  31 iterations

     Writing all to output data dir /home/colonna_n/CODES/q-e-kcw/tempdir/c6h6.save/ :
     XML data file, charge density, pseudopotentials, collected wavefunctions
 
     init_run     :      0.86s CPU      1.00s WALL (       1 calls)
     electrons    :     21.78s CPU     24.22s WALL (       1 calls)

     Called by init_run:
     wfcinit      :      0.34s CPU      0.40s WALL (       1 calls)
     wfcinit:atom :      0.00s CPU      0.01s WALL (       2 calls)
     wfcinit:wfcr :      0.30s CPU      0.36s WALL (       2 calls)
     potinit      :      0.19s CPU      0.23s WALL (       1 calls)
     hinit0       :      0.27s CPU      0.31s WALL (       1 calls)

     Called by electrons:
     c_bands      :     15.27s CPU     16.87s WALL (      31 calls)
     sum_band     :      2.94s CPU      3.33s WALL (      31 calls)
     v_of_rho     :      1.12s CPU      1.28s WALL (      32 calls)
     v_h          :      0.20s CPU      0.23s WALL (      32 calls)
     v_xc         :      0.91s CPU      1.06s WALL (      32 calls)
     mix_rho      :      2.12s CPU      2.37s WALL (      31 calls)

     Called by c_bands:
     init_us_2    :      0.83s CPU      0.85s WALL (     126 calls)
     cegterg      :     12.52s CPU     14.00s WALL (      62 calls)

     Called by sum_band:
     sum_band:wei :      0.00s CPU      0.00s WALL (      31 calls)
     sum_band:loo :      2.53s CPU      2.88s WALL (      31 calls)
     sum_band:buf :      0.04s CPU      0.04s WALL (      62 calls)
     sum_band:ini :      0.41s CPU      0.42s WALL (      62 calls)

     Called by *egterg:
     cdiaghg      :      0.09s CPU      0.10s WALL (     302 calls)
     cegterg:over :      0.47s CPU      0.54s WALL (     240 calls)
     cegterg:upda :      0.18s CPU      0.19s WALL (     240 calls)
     cegterg:last :      0.40s CPU      0.41s WALL (     203 calls)
     h_psi        :     11.01s CPU     12.33s WALL (     304 calls)
     g_psi        :      0.24s CPU      0.25s WALL (     240 calls)

     Called by h_psi:
     h_psi:calbec :      0.59s CPU      0.67s WALL (     304 calls)
     vloc_psi     :      9.62s CPU     10.83s WALL (     304 calls)
     add_vuspsi   :      0.71s CPU      0.75s WALL (     304 calls)

     General routines
     calbec       :      0.59s CPU      0.66s WALL (     304 calls)
     fft          :      0.39s CPU      0.47s WALL (     159 calls)
     ffts         :      0.11s CPU      0.12s WALL (      62 calls)
     fftw         :      7.61s CPU      8.84s WALL (    8010 calls)
 
     Parallel routines
 
     PWSCF        :     22.70s CPU     25.31s WALL

 
   This run was terminated on:  15:51: 5   7Oct2024            

=------------------------------------------------------------------------------=
   JOB DONE.
=------------------------------------------------------------------------------=
